<?xml version="1.0" encoding="UTF-8"?>

<!-- generated on 09/19/15 18:41:55 by SUMO Version 0.23.0
<?xml version="1.0" encoding="UTF-8"?>

<configuration xmlns:xsi="http://www.w3.org/2001/XMLSchema-instance" xsi:noNamespaceSchemaLocation="http://sumo.dlr.de/xsd/sumoConfiguration.xsd">

    <input>
        <net-file value="copenhagen.net.xml"/>
        <route-files value="copenhagen.rou.xml,copenhagen.ped.rou.xml"/>
    </input>

    <output>
        <fcd-output value="FCDOutput.txt"/>
        <fcd-output.geo value="true"/>
    </output>

    <time>
        <end value="7200"/>
    </time>

    <processing>
        <ignore-route-errors value="true"/>
    </processing>

    <report>
        <verbose value="true"/>
        <no-step-log value="true"/>
    </report>

</configuration>
-->

<fcd-export xmlns:xsi="http://www.w3.org/2001/XMLSchema-instance" xsi:noNamespaceSchemaLocation="http://sumo.dlr.de/xsd/fcd_file.xsd">
    <timestep time="0.00">
        <vehicle id="0" x="12.537496" y="55.663419" angle="-18.966962" type="DEFAULT_VEHTYPE" speed="0.000000" pos="5.100000" lane="27409327_0" slope="0.000000"/>
        <vehicle id="1" x="12.523000" y="55.704148" angle="5.126662" type="DEFAULT_VEHTYPE" speed="0.000000" pos="5.100000" lane="52178731#0_0" slope="0.000000"/>
        <person id="0" x="12.534963" y="55.731728" angle="179.756510" speed="0.000000" pos="0.000000" edge="4352178#0" slope="0.000000"/>
    </timestep>
    <timestep time="1.00">
        <vehicle id="0" x="12.537488" y="55.663405" angle="-18.966962" type="DEFAULT_VEHTYPE" speed="1.673759" pos="6.773759" lane="27409327_0" slope="0.000000"/>
        <vehicle id="1" x="12.523005" y="55.704125" angle="5.126662" type="DEFAULT_VEHTYPE" speed="2.540877" pos="7.640877" lane="52178731#0_0" slope="0.000000"/>
        <vehicle id="10" x="12.605069" y="55.723213" angle="-112.788525" type="DEFAULT_VEHTYPE" speed="0.000000" pos="0.200000" lane="8131026#3_0" slope="0.000000"/>
        <vehicle id="12" x="12.507084" y="55.731957" angle="-146.411449" type="DEFAULT_VEHTYPE" speed="0.000000" pos="5.100000" lane="22999401#3_0" slope="0.000000"/>
        <vehicle id="13" x="12.487360" y="55.684532" angle="-68.070165" type="DEFAULT_VEHTYPE" speed="0.000000" pos="0.220000" lane="-2860760#5_0" slope="0.000000"/>
        <vehicle id="14" x="12.592612" y="55.666738" angle="-103.938116" type="DEFAULT_VEHTYPE" speed="0.000000" pos="5.100000" lane="-148973670_0" slope="0.000000"/>
        <vehicle id="15" x="12.623716" y="55.642210" angle="105.518434" type="DEFAULT_VEHTYPE" speed="0.000000" pos="5.100000" lane="294715528#0_0" slope="0.000000"/>
        <vehicle id="17" x="12.526396" y="55.685135" angle="-24.145918" type="DEFAULT_VEHTYPE" speed="0.000000" pos="0.200000" lane="2954571#3_0" slope="0.000000"/>
        <vehicle id="18" x="12.578650" y="55.676616" angle="134.600924" type="DEFAULT_VEHTYPE" speed="0.000000" pos="5.100000" lane="43129906#2_0" slope="0.000000"/>
        <vehicle id="19" x="12.530070" y="55.683081" angle="67.275898" type="DEFAULT_VEHTYPE" speed="0.000000" pos="5.100000" lane="78456674#7_0" slope="0.000000"/>
        <vehicle id="2" x="12.547775" y="55.737467" angle="20.527088" type="DEFAULT_VEHTYPE" speed="0.000000" pos="5.100000" lane="199311371_0" slope="0.000000"/>
        <vehicle id="21" x="12.551795" y="55.717254" angle="74.857355" type="DEFAULT_VEHTYPE" speed="0.000000" pos="5.100000" lane="4314720#1_0" slope="0.000000"/>
        <vehicle id="22" x="12.514657" y="55.639016" angle="112.924450" type="DEFAULT_VEHTYPE" speed="0.000000" pos="5.100000" lane="25928905#1_0" slope="0.000000"/>
        <vehicle id="23" x="12.533612" y="55.643455" angle="139.856207" type="DEFAULT_VEHTYPE" speed="0.000000" pos="5.100000" lane="25916650_0" slope="0.000000"/>
        <vehicle id="24" x="12.549580" y="55.679825" angle="65.846326" type="DEFAULT_VEHTYPE" speed="0.000000" pos="5.100000" lane="150900141#1_0" slope="0.000000"/>
        <vehicle id="25" x="12.441564" y="55.682244" angle="108.703197" type="DEFAULT_VEHTYPE" speed="0.000000" pos="5.100000" lane="-26154980#13_0" slope="0.000000"/>
        <vehicle id="26" x="12.509382" y="55.685066" angle="70.735565" type="DEFAULT_VEHTYPE" speed="0.000000" pos="5.100000" lane="152244445#0_0" slope="0.000000"/>
        <vehicle id="27" x="12.459546" y="55.724078" angle="-85.843200" type="DEFAULT_VEHTYPE" speed="0.000000" pos="5.100000" lane="25966829#2_0" slope="0.000000"/>
        <vehicle id="28" x="12.558358" y="55.693351" angle="39.266625" type="DEFAULT_VEHTYPE" speed="0.000000" pos="5.100000" lane="144381940_0" slope="0.000000"/>
        <vehicle id="29" x="12.488976" y="55.677463" angle="109.547432" type="DEFAULT_VEHTYPE" speed="0.000000" pos="5.100000" lane="-105577056#7_0" slope="0.000000"/>
        <vehicle id="3" x="12.588385" y="55.632082" angle="173.664623" type="DEFAULT_VEHTYPE" speed="0.000000" pos="5.100000" lane="92967917_0" slope="0.000000"/>
        <vehicle id="30" x="12.517218" y="55.682523" angle="-107.530922" type="DEFAULT_VEHTYPE" speed="0.000000" pos="5.100000" lane="148233539_0" slope="0.000000"/>
        <vehicle id="32" x="12.505868" y="55.739656" angle="159.106258" type="DEFAULT_VEHTYPE" speed="0.000000" pos="5.100000" lane="11987003#2_0" slope="0.000000"/>
        <vehicle id="33" x="12.573724" y="55.697724" angle="-137.794647" type="DEFAULT_VEHTYPE" speed="0.000000" pos="5.080000" lane="-26164984_0" slope="0.000000"/>
        <vehicle id="34" x="12.653255" y="55.633841" angle="-154.024876" type="DEFAULT_VEHTYPE" speed="0.000000" pos="5.100000" lane="210556034#1_0" slope="0.000000"/>
        <vehicle id="35" x="12.465026" y="55.714229" angle="-126.023080" type="DEFAULT_VEHTYPE" speed="0.000000" pos="5.100000" lane="227916945#6_0" slope="0.000000"/>
        <vehicle id="36" x="12.442968" y="55.662349" angle="47.514367" type="DEFAULT_VEHTYPE" speed="0.000000" pos="5.100000" lane="227567920#0_0" slope="0.000000"/>
        <vehicle id="37" x="12.539303" y="55.658704" angle="-20.019067" type="DEFAULT_VEHTYPE" speed="0.000000" pos="5.100000" lane="26482048#4_0" slope="0.000000"/>
        <vehicle id="38" x="12.576252" y="55.670715" angle="-139.495735" type="DEFAULT_VEHTYPE" speed="0.000000" pos="5.100000" lane="45981167#1_0" slope="0.000000"/>
        <vehicle id="39" x="12.547188" y="55.677832" angle="-114.141280" type="DEFAULT_VEHTYPE" speed="0.000000" pos="5.100000" lane="151193402_0" slope="0.000000"/>
        <vehicle id="4" x="12.501565" y="55.715641" angle="-148.436830" type="DEFAULT_VEHTYPE" speed="0.000000" pos="5.100000" lane="119507348#1_0" slope="0.000000"/>
        <vehicle id="5" x="12.562562" y="55.660461" angle="128.091271" type="DEFAULT_VEHTYPE" speed="0.000000" pos="5.100000" lane="143837842#0_0" slope="0.000000"/>
        <vehicle id="7" x="12.577473" y="55.714209" angle="9.210192" type="DEFAULT_VEHTYPE" speed="0.000000" pos="5.100000" lane="237099606#1_0" slope="0.000000"/>
        <vehicle id="8" x="12.538929" y="55.658637" angle="-91.445700" type="DEFAULT_VEHTYPE" speed="0.000000" pos="5.100000" lane="3547223#2_0" slope="0.000000"/>
        <vehicle id="9" x="12.529426" y="55.678594" angle="-12.942186" type="DEFAULT_VEHTYPE" speed="0.000000" pos="5.100000" lane="79638075_0" slope="0.000000"/>
        <person id="11" x="12.500272" y="55.650563" angle="-107.015050" speed="0.000000" pos="0.000000" edge="-10622605#5" slope="0.000000"/>
        <person id="9" x="12.439051" y="55.742344" angle="96.170175" speed="0.000000" pos="0.000000" edge="-166880841#0" slope="0.000000"/>
        <person id="3" x="12.495869" y="55.739314" angle="99.816485" speed="0.000000" pos="0.000000" edge="-22999375#0" slope="0.000000"/>
        <person id="13" x="12.471499" y="55.710586" angle="-145.661289" speed="0.000000" pos="0.000000" edge="-25543967#6" slope="0.000000"/>
        <person id="5" x="12.471792" y="55.713709" angle="-21.648843" speed="0.000000" pos="0.000000" edge="-25911395#3" slope="0.000000"/>
        <person id="2" x="12.461553" y="55.714284" angle="-1.148707" speed="0.000000" pos="0.000000" edge="-25935717#0" slope="0.000000"/>
        <person id="0" x="12.534863" y="55.731787" angle="-84.046822" speed="1.141386" pos="1.141386" edge="-4360541#6" slope="0.000000"/>
        <person id="14" x="12.485060" y="55.707754" angle="143.130102" speed="0.000000" pos="0.000000" edge="-8482095#9" slope="0.000000"/>
        <person id="7" x="12.608543" y="55.642672" angle="-81.205400" speed="0.000000" pos="0.000000" edge="108231456#5" slope="0.000000"/>
        <person id="15" x="12.646602" y="55.648708" angle="39.047727" speed="0.000000" pos="0.000000" edge="153338051" slope="0.000000"/>
        <person id="1" x="12.614685" y="55.646835" angle="-78.111342" speed="0.000000" pos="0.000000" edge="161860533#2" slope="0.000000"/>
        <person id="17" x="12.565713" y="55.713599" angle="-69.584095" speed="0.000000" pos="0.000000" edge="1757742#6" slope="0.000000"/>
        <person id="6" x="12.503347" y="55.678361" angle="98.769062" speed="0.000000" pos="0.000000" edge="220270796#0" slope="0.000000"/>
        <person id="20" x="12.441412" y="55.722597" angle="168.690068" speed="0.000000" pos="0.000000" edge="221407653#2" slope="0.000000"/>
        <person id="4" x="12.597378" y="55.667625" angle="26.618201" speed="0.000000" pos="0.000000" edge="237100946#6" slope="0.000000"/>
        <person id="19" x="12.470107" y="55.717915" angle="111.543557" speed="0.000000" pos="0.000000" edge="25935668#0" slope="0.000000"/>
        <person id="16" x="12.540612" y="55.714800" angle="-58.630142" speed="0.000000" pos="0.000000" edge="26284017#0" slope="0.000000"/>
        <person id="10" x="12.553096" y="55.680196" angle="-106.873014" speed="0.000000" pos="0.000000" edge="29654#4" slope="0.000000"/>
        <person id="18" x="12.531435" y="55.689340" angle="-29.109953" speed="0.000000" pos="0.000000" edge="8122584#1" slope="0.000000"/>
        <person id="12" x="12.545455" y="55.704624" angle="-138.495777" speed="0.000000" pos="0.000000" edge="83872621#1" slope="0.000000"/>
        <person id="8" x="12.505055" y="55.672160" angle="172.358644" speed="0.000000" pos="0.000000" edge="89367027#0" slope="0.000000"/>
    </timestep>
    <timestep time="2.00">
        <vehicle id="0" x="12.537474" y="55.663378" angle="-18.966962" type="DEFAULT_VEHTYPE" speed="3.119846" pos="9.893605" lane="27409327_0" slope="0.000000"/>
        <vehicle id="1" x="12.523009" y="55.704105" angle="5.126662" type="DEFAULT_VEHTYPE" speed="2.264449" pos="9.905326" lane="52178731#0_0" slope="0.000000"/>
        <vehicle id="10" x="12.605041" y="55.723219" angle="-112.744562" type="DEFAULT_VEHTYPE" speed="1.845911" pos="1.845911" lane=":20923528_0_0" slope="0.000000"/>
        <vehicle id="12" x="12.507062" y="55.731975" angle="-146.411449" type="DEFAULT_VEHTYPE" speed="2.381663" pos="7.481663" lane="22999401#3_0" slope="0.000000"/>
        <vehicle id="13" x="12.487349" y="55.684519" angle="-55.832019" type="DEFAULT_VEHTYPE" speed="1.606147" pos="1.606147" lane=":1473295_2_0" slope="0.000000"/>
        <vehicle id="14" x="12.592576" y="55.666743" angle="-103.938116" type="DEFAULT_VEHTYPE" speed="2.292267" pos="7.392267" lane="-148973670_0" slope="0.000000"/>
        <vehicle id="15" x="12.623742" y="55.642215" angle="105.518434" type="DEFAULT_VEHTYPE" speed="1.731436" pos="6.831436" lane="294715528#0_0" slope="0.000000"/>
        <vehicle id="17" x="12.526386" y="55.685121" angle="-24.148685" type="DEFAULT_VEHTYPE" speed="1.669772" pos="1.669772" lane=":1616521161_0_0" slope="0.000000"/>
        <vehicle id="18" x="12.578672" y="55.676624" angle="121.197151" type="DEFAULT_VEHTYPE" speed="1.700909" pos="6.800909" lane="43129906#2_0" slope="0.000000"/>
        <vehicle id="19" x="12.530102" y="55.683074" angle="67.275898" type="DEFAULT_VEHTYPE" speed="2.199878" pos="7.299878" lane="78456674#7_0" slope="0.000000"/>
        <vehicle id="2" x="12.547797" y="55.737453" angle="35.278959" type="DEFAULT_VEHTYPE" speed="2.065251" pos="7.165251" lane="199311371_0" slope="0.000000"/>
        <vehicle id="21" x="12.551816" y="55.717251" angle="74.857355" type="DEFAULT_VEHTYPE" speed="1.384431" pos="6.484431" lane="4314720#1_0" slope="0.000000"/>
        <vehicle id="22" x="12.514679" y="55.639022" angle="112.924450" type="DEFAULT_VEHTYPE" speed="1.544790" pos="6.644790" lane="25928905#1_0" slope="0.000000"/>
        <vehicle id="23" x="12.533634" y="55.643471" angle="139.856207" type="DEFAULT_VEHTYPE" speed="2.286194" pos="7.386194" lane="25916650_0" slope="0.000000"/>
        <vehicle id="24" x="12.549612" y="55.679818" angle="65.846326" type="DEFAULT_VEHTYPE" speed="2.169300" pos="7.269300" lane="150900141#1_0" slope="0.000000"/>
        <vehicle id="25" x="12.441602" y="55.682252" angle="108.703197" type="DEFAULT_VEHTYPE" speed="2.557857" pos="7.657857" lane="-26154980#13_0" slope="0.000000"/>
        <vehicle id="26" x="12.509419" y="55.685059" angle="70.735565" type="DEFAULT_VEHTYPE" speed="2.437003" pos="7.537003" lane="152244445#0_0" slope="0.000000"/>
        <vehicle id="27" x="12.459506" y="55.724076" angle="-85.843200" type="DEFAULT_VEHTYPE" speed="2.484271" pos="7.584271" lane="25966829#2_0" slope="0.000000"/>
        <vehicle id="28" x="12.558397" y="55.693349" angle="59.782848" type="DEFAULT_VEHTYPE" speed="2.561230" pos="2.351230" lane=":1579322654_8_0" slope="0.000000"/>
        <vehicle id="29" x="12.489004" y="55.677469" angle="109.547432" type="DEFAULT_VEHTYPE" speed="1.892393" pos="6.992393" lane="-105577056#7_0" slope="0.000000"/>
        <vehicle id="3" x="12.588388" y="55.632103" angle="173.664623" type="DEFAULT_VEHTYPE" speed="2.381081" pos="7.481081" lane="92967917_0" slope="0.000000"/>
        <vehicle id="30" x="12.517192" y="55.682527" angle="-107.530922" type="DEFAULT_VEHTYPE" speed="1.709408" pos="6.809408" lane="148233539_0" slope="0.000000"/>
        <vehicle id="32" x="12.505880" y="55.739677" angle="159.106258" type="DEFAULT_VEHTYPE" speed="2.393161" pos="7.493161" lane="11987003#2_0" slope="0.000000"/>
        <vehicle id="33" x="12.573690" y="55.697725" angle="-119.207225" type="DEFAULT_VEHTYPE" speed="2.207709" pos="2.207709" lane=":286511804_3_0" slope="0.000000"/>
        <vehicle id="34" x="12.653245" y="55.633851" angle="-154.024876" type="DEFAULT_VEHTYPE" speed="1.346094" pos="6.446094" lane="210556034#1_0" slope="0.000000"/>
        <vehicle id="35" x="12.464995" y="55.714241" angle="-126.023080" type="DEFAULT_VEHTYPE" speed="2.309929" pos="7.409929" lane="227916945#6_0" slope="0.000000"/>
        <vehicle id="36" x="12.442997" y="55.662337" angle="49.235236" type="DEFAULT_VEHTYPE" speed="2.256706" pos="0.266706" lane=":1781963810_5_0" slope="0.000000"/>
        <vehicle id="37" x="12.539346" y="55.658683" angle="-20.019067" type="DEFAULT_VEHTYPE" speed="1.379249" pos="6.479249" lane="26482048#4_1" slope="0.000000"/>
        <vehicle id="38" x="12.576237" y="55.670724" angle="-139.297477" type="DEFAULT_VEHTYPE" speed="1.352077" pos="6.452077" lane="45981167#1_0" slope="0.000000"/>
        <vehicle id="39" x="12.547152" y="55.677840" angle="-114.141280" type="DEFAULT_VEHTYPE" speed="2.431812" pos="7.531812" lane="151193402_0" slope="0.000000"/>
        <vehicle id="4" x="12.501552" y="55.715653" angle="-148.436830" type="DEFAULT_VEHTYPE" speed="1.528400" pos="6.628400" lane="119507348#1_0" slope="0.000000"/>
        <vehicle id="40" x="12.543436" y="55.684189" angle="66.960564" type="DEFAULT_VEHTYPE" speed="0.000000" pos="5.100000" lane="-146459058#1_0" slope="0.000000"/>
        <vehicle id="41" x="12.530389" y="55.646511" angle="73.937531" type="DEFAULT_VEHTYPE" speed="0.000000" pos="5.100000" lane="-128468662_0" slope="0.000000"/>
        <vehicle id="42" x="12.574852" y="55.632515" angle="-14.665643" type="DEFAULT_VEHTYPE" speed="0.000000" pos="5.100000" lane="-147476448#3_0" slope="0.000000"/>
        <vehicle id="43" x="12.532674" y="55.668039" angle="13.015950" type="DEFAULT_VEHTYPE" speed="0.000000" pos="4.900000" lane="150090925#1_0" slope="0.000000"/>
        <vehicle id="44" x="12.450816" y="55.662616" angle="85.952230" type="DEFAULT_VEHTYPE" speed="0.000000" pos="5.100000" lane="118548402#4_0" slope="0.000000"/>
        <vehicle id="45" x="12.546775" y="55.694181" angle="131.268603" type="DEFAULT_VEHTYPE" speed="0.000000" pos="5.100000" lane="115331054#0_0" slope="0.000000"/>
        <vehicle id="47" x="12.543201" y="55.684159" angle="-32.267190" type="DEFAULT_VEHTYPE" speed="0.000000" pos="5.100000" lane="23803819#0_0" slope="0.000000"/>
        <vehicle id="48" x="12.551480" y="55.674889" angle="67.181498" type="DEFAULT_VEHTYPE" speed="0.000000" pos="5.100000" lane="-151152175#3_0" slope="0.000000"/>
        <vehicle id="49" x="12.505466" y="55.679377" angle="-19.447684" type="DEFAULT_VEHTYPE" speed="0.000000" pos="5.100000" lane="-154348710#0_0" slope="0.000000"/>
        <vehicle id="5" x="12.562578" y="55.660468" angle="128.091271" type="DEFAULT_VEHTYPE" speed="1.356433" pos="6.456433" lane="143837842#0_0" slope="0.000000"/>
        <vehicle id="50" x="12.501162" y="55.743756" angle="-75.920534" type="DEFAULT_VEHTYPE" speed="0.000000" pos="0.200000" lane="237352556#15_0" slope="0.000000"/>
        <vehicle id="51" x="12.604665" y="55.648152" angle="-168.637980" type="DEFAULT_VEHTYPE" speed="0.000000" pos="5.100000" lane="-8122614#8_0" slope="0.000000"/>
        <vehicle id="53" x="12.623768" y="55.638100" angle="15.995259" type="DEFAULT_VEHTYPE" speed="0.000000" pos="5.100000" lane="-4230797_0" slope="0.000000"/>
        <vehicle id="54" x="12.569400" y="55.702270" angle="-41.572926" type="DEFAULT_VEHTYPE" speed="0.000000" pos="5.100000" lane="-4204572#3_0" slope="0.000000"/>
        <vehicle id="55" x="12.504456" y="55.660822" angle="12.067506" type="DEFAULT_VEHTYPE" speed="0.000000" pos="5.100000" lane="94089737#0_0" slope="0.000000"/>
        <vehicle id="56" x="12.454291" y="55.682311" angle="95.348006" type="DEFAULT_VEHTYPE" speed="0.000000" pos="5.100000" lane="352152151#1_0" slope="0.000000"/>
        <vehicle id="58" x="12.526451" y="55.729586" angle="11.280254" type="DEFAULT_VEHTYPE" speed="0.000000" pos="5.100000" lane="360241153_0" slope="0.000000"/>
        <vehicle id="59" x="12.473834" y="55.664640" angle="-4.500275" type="DEFAULT_VEHTYPE" speed="0.000000" pos="5.100000" lane="-155511409#22_0" slope="0.000000"/>
        <vehicle id="7" x="12.577478" y="55.714192" angle="9.210192" type="DEFAULT_VEHTYPE" speed="1.856909" pos="6.956909" lane="237099606#1_0" slope="0.000000"/>
        <vehicle id="8" x="12.538900" y="55.658637" angle="-91.445700" type="DEFAULT_VEHTYPE" speed="1.824905" pos="6.924905" lane="3547223#2_0" slope="0.000000"/>
        <vehicle id="9" x="12.529420" y="55.678577" angle="-12.942186" type="DEFAULT_VEHTYPE" speed="1.959657" pos="7.059657" lane="79638075_0" slope="0.000000"/>
        <person id="7" x="12.608521" y="55.642670" angle="-81.190636" speed="1.372151" pos="4.827849" edge=":1242099798_1" slope="0.000000"/>
        <person id="9" x="12.439068" y="55.742345" angle="89.633898" speed="1.201943" pos="9.458057" edge=":1783000027_1" slope="0.000000"/>
        <person id="20" x="12.441412" y="55.722609" angle="-178.773672" speed="1.237424" pos="1.037424" edge=":2314421486_1" slope="0.000000"/>
        <person id="3" x="12.495890" y="55.739317" angle="105.720461" speed="1.259399" pos="7.490601" edge=":247948370_0" slope="0.000000"/>
        <person id="2" x="12.461549" y="55.714281" angle="-147.380757" speed="1.231590" pos="1.298410" edge=":2610996986_2" slope="0.000000"/>
        <person id="13" x="12.471483" y="55.710628" angle="153.868999" speed="1.263302" pos="4.166698" edge=":278386823_1" slope="0.000000"/>
        <person id="1" x="12.614666" y="55.646833" angle="-78.726277" speed="1.182429" pos="0.982429" edge=":3605963242_0" slope="0.000000"/>
        <person id="11" x="12.500254" y="55.650568" angle="-115.137415" speed="1.387212" pos="9.152788" edge=":93029030_2" slope="0.000000"/>
        <person id="19" x="12.470158" y="55.717865" angle="-13.956208" speed="1.198998" pos="1.198998" edge="-113112644#1" slope="0.000000"/>
        <person id="21" x="12.626793" y="55.658783" angle="19.669291" speed="0.000000" pos="0.000000" edge="-148886116#0" slope="0.000000"/>
        <person id="17" x="12.565541" y="55.713586" angle="-70.577081" speed="1.145671" pos="1.145671" edge="-1757742#5" slope="0.000000"/>
        <person id="8" x="12.505103" y="55.672229" angle="178.188329" speed="1.212923" pos="1.212923" edge="-23177489" slope="0.000000"/>
        <person id="4" x="12.597422" y="55.667529" angle="26.672686" speed="1.299454" pos="1.299454" edge="-237100946#5" slope="0.000000"/>
        <person id="27" x="12.497785" y="55.743109" angle="-30.465545" speed="0.000000" pos="0.000000" edge="-23916467#1" slope="0.000000"/>
        <person id="31" x="12.472860" y="55.711887" angle="-66.037511" speed="0.000000" pos="0.000000" edge="-25911190#0" slope="0.000000"/>
        <person id="5" x="12.471785" y="55.713699" angle="-21.648843" speed="1.252376" pos="1.252376" edge="-25911395#3" slope="0.000000"/>
        <person id="10" x="12.552992" y="55.680242" angle="-113.884622" speed="1.376056" pos="1.376056" edge="-29654#3" slope="0.000000"/>
        <person id="39" x="12.538696" y="55.700667" angle="-131.638256" speed="0.000000" pos="0.000000" edge="-358624679" slope="0.000000"/>
        <person id="14" x="12.485152" y="55.707728" angle="53.609147" speed="1.315412" pos="1.315412" edge="-38328779#14" slope="0.000000"/>
        <person id="38" x="12.500131" y="55.692578" angle="28.651025" speed="0.000000" pos="0.000000" edge="-3992560#2" slope="0.000000"/>
        <person id="37" x="12.573982" y="55.741971" angle="149.453502" speed="0.000000" pos="0.000000" edge="-4313371" slope="0.000000"/>
        <person id="0" x="12.534844" y="55.731786" angle="-84.046822" speed="1.225013" pos="2.366399" edge="-4360541#6" slope="0.000000"/>
        <person id="33" x="12.508847" y="55.711556" angle="100.964314" speed="0.000000" pos="0.000000" edge="-4767377#1" slope="0.000000"/>
        <person id="35" x="12.636370" y="55.640348" angle="-74.087369" speed="0.000000" pos="0.000000" edge="-8122489#0" slope="0.000000"/>
        <person id="18" x="12.531319" y="55.689265" angle="-29.102060" speed="1.246398" pos="1.246398" edge="-8122584#0" slope="0.000000"/>
        <person id="12" x="12.545377" y="55.704711" angle="-142.518038" speed="1.303593" pos="1.303593" edge="-83872621#0" slope="0.000000"/>
        <person id="15" x="12.646616" y="55.648699" angle="39.047727" speed="1.376774" pos="1.376774" edge="153338051" slope="0.000000"/>
        <person id="6" x="12.503367" y="55.678363" angle="98.769062" speed="1.320139" pos="1.320139" edge="220270796#0" slope="0.000000"/>
        <person id="30" x="12.488579" y="55.660667" angle="84.552405" speed="0.000000" pos="0.000000" edge="24526887#1" slope="0.000000"/>
        <person id="24" x="12.566592" y="55.726214" angle="-12.221774" speed="0.000000" pos="0.000000" edge="26085383#5" slope="0.000000"/>
        <person id="16" x="12.540596" y="55.714794" angle="-58.630142" speed="1.181911" pos="1.181911" edge="26284017#0" slope="0.000000"/>
        <person id="32" x="12.549332" y="55.690106" angle="145.009881" speed="0.000000" pos="0.000000" edge="322679166#7" slope="0.000000"/>
        <person id="40" x="12.473667" y="55.681821" angle="64.323184" speed="0.000000" pos="0.000000" edge="34587510#0" slope="0.000000"/>
        <person id="22" x="12.582750" y="55.670628" angle="-101.625360" speed="0.000000" pos="0.000000" edge="3643789#5" slope="0.000000"/>
        <person id="23" x="12.557078" y="55.659467" angle="176.006364" speed="0.000000" pos="0.000000" edge="364793653#5" slope="0.000000"/>
        <person id="28" x="12.555770" y="55.677496" angle="-101.888658" speed="0.000000" pos="0.000000" edge="3735#4" slope="0.000000"/>
        <person id="36" x="12.536312" y="55.717155" angle="-14.623053" speed="0.000000" pos="0.000000" edge="4349665#0" slope="0.000000"/>
        <person id="26" x="12.533016" y="55.722924" angle="174.414482" speed="0.000000" pos="0.000000" edge="4350089" slope="0.000000"/>
        <person id="29" x="12.576892" y="55.727645" angle="-102.592567" speed="0.000000" pos="0.000000" edge="57775962" slope="0.000000"/>
        <person id="25" x="12.586692" y="55.707996" angle="-72.557313" speed="0.000000" pos="0.000000" edge="83348641#1" slope="0.000000"/>
    </timestep>
    <timestep time="3.00">
        <vehicle id="0" x="12.537450" y="55.663334" angle="-18.966962" type="DEFAULT_VEHTYPE" speed="5.127336" pos="15.020940" lane="27409327_0" slope="0.000000"/>
        <vehicle id="1" x="12.523013" y="55.704090" angle="5.126662" type="DEFAULT_VEHTYPE" speed="1.644020" pos="11.549345" lane="52178731#0_0" slope="0.000000"/>
        <vehicle id="10" x="12.604982" y="55.723231" angle="-112.649127" type="DEFAULT_VEHTYPE" speed="3.952619" pos="5.798530" lane=":20923528_0_0" slope="0.000000"/>
        <vehicle id="12" x="12.507006" y="55.732004" angle="-135.024807" type="DEFAULT_VEHTYPE" speed="4.820076" pos="12.301738" lane="22999401#3_0" slope="0.000000"/>
        <vehicle id="13" x="12.487386" y="55.684506" angle="26.300517" type="DEFAULT_VEHTYPE" speed="3.343855" pos="0.130002" lane="2860760#5_0" slope="0.000000"/>
        <vehicle id="14" x="12.592520" y="55.666749" angle="-103.938116" type="DEFAULT_VEHTYPE" speed="3.629335" pos="11.021602" lane="-148973670_0" slope="0.000000"/>
        <vehicle id="15" x="12.623775" y="55.642221" angle="105.518434" type="DEFAULT_VEHTYPE" speed="2.155971" pos="8.987407" lane="294715528#0_0" slope="0.000000"/>
        <vehicle id="17" x="12.526362" y="55.685088" angle="-24.179894" type="DEFAULT_VEHTYPE" speed="3.909303" pos="1.509076" lane="2954571#4_0" slope="0.000000"/>
        <vehicle id="18" x="12.578723" y="55.676643" angle="121.197151" type="DEFAULT_VEHTYPE" speed="3.793048" pos="10.593957" lane="43129906#2_0" slope="0.000000"/>
        <vehicle id="19" x="12.530157" y="55.683062" angle="67.275898" type="DEFAULT_VEHTYPE" speed="3.700745" pos="11.000623" lane="78456674#7_0" slope="0.000000"/>
        <vehicle id="2" x="12.547838" y="55.737431" angle="43.114581" type="DEFAULT_VEHTYPE" speed="3.649950" pos="10.815201" lane="199311371_0" slope="0.000000"/>
        <vehicle id="21" x="12.551846" y="55.717247" angle="74.857355" type="DEFAULT_VEHTYPE" speed="1.902069" pos="8.386500" lane="4314720#1_0" slope="0.000000"/>
        <vehicle id="22" x="12.514703" y="55.639028" angle="112.924450" type="DEFAULT_VEHTYPE" speed="1.633403" pos="8.278192" lane="25928905#1_0" slope="0.000000"/>
        <vehicle id="23" x="12.533680" y="55.643504" angle="139.856207" type="DEFAULT_VEHTYPE" speed="4.702692" pos="12.088886" lane="25916650_0" slope="0.000000"/>
        <vehicle id="24" x="12.549680" y="55.679802" angle="65.846326" type="DEFAULT_VEHTYPE" speed="4.637317" pos="11.906617" lane="150900141#1_0" slope="0.000000"/>
        <vehicle id="25" x="12.441673" y="55.682268" angle="108.703197" type="DEFAULT_VEHTYPE" speed="4.772641" pos="12.430498" lane="-26154980#13_0" slope="0.000000"/>
        <vehicle id="26" x="12.509482" y="55.685048" angle="70.735565" type="DEFAULT_VEHTYPE" speed="4.176640" pos="11.713643" lane="152244445#0_0" slope="0.000000"/>
        <vehicle id="27" x="12.459434" y="55.724071" angle="-85.843200" type="DEFAULT_VEHTYPE" speed="4.601176" pos="12.185447" lane="25966829#2_0" slope="0.000000"/>
        <vehicle id="28" x="12.558377" y="55.693384" angle="-170.621690" type="DEFAULT_VEHTYPE" speed="4.601115" pos="2.132345" lane="-144381940_0" slope="0.000000"/>
        <vehicle id="29" x="12.489059" y="55.677482" angle="109.547432" type="DEFAULT_VEHTYPE" speed="3.746644" pos="10.739037" lane="-105577056#7_0" slope="0.000000"/>
        <vehicle id="3" x="12.588390" y="55.632118" angle="173.664623" type="DEFAULT_VEHTYPE" speed="1.604245" pos="9.085327" lane="92967917_0" slope="0.000000"/>
        <vehicle id="30" x="12.517140" y="55.682535" angle="-107.530922" type="DEFAULT_VEHTYPE" speed="3.400081" pos="10.209489" lane="148233539_0" slope="0.000000"/>
        <vehicle id="32" x="12.505903" y="55.739714" angle="159.106258" type="DEFAULT_VEHTYPE" speed="4.458757" pos="11.951919" lane="11987003#2_0" slope="0.000000"/>
        <vehicle id="33" x="12.573706" y="55.697692" angle="3.584460" type="DEFAULT_VEHTYPE" speed="4.359786" pos="1.747495" lane="26164984_0" slope="0.000000"/>
        <vehicle id="34" x="12.653218" y="55.633880" angle="-154.024876" type="DEFAULT_VEHTYPE" speed="3.580526" pos="10.026620" lane="210556034#1_0" slope="0.000000"/>
        <vehicle id="35" x="12.464943" y="55.714261" angle="-126.023080" type="DEFAULT_VEHTYPE" speed="3.984047" pos="11.393976" lane="227916945#6_0" slope="0.000000"/>
        <vehicle id="36" x="12.443028" y="55.662356" angle="118.973680" type="DEFAULT_VEHTYPE" speed="4.090886" pos="1.947592" lane=":1781963810_7_0" slope="0.000000"/>
        <vehicle id="37" x="12.539329" y="55.658654" angle="-20.019067" type="DEFAULT_VEHTYPE" speed="3.426615" pos="9.905864" lane="26482048#4_1" slope="0.000000"/>
        <vehicle id="38" x="12.576199" y="55.670735" angle="-127.900452" type="DEFAULT_VEHTYPE" speed="2.680400" pos="9.132477" lane="45981167#1_0" slope="0.000000"/>
        <vehicle id="39" x="12.547087" y="55.677855" angle="-114.141280" type="DEFAULT_VEHTYPE" speed="4.425589" pos="11.957400" lane="151193402_0" slope="0.000000"/>
        <vehicle id="4" x="12.501523" y="55.715677" angle="-148.436830" type="DEFAULT_VEHTYPE" speed="3.204427" pos="9.832827" lane="119507348#1_0" slope="0.000000"/>